# vtk DataFile Version 3.0
#This file was generated by the deal.II library on 2023/3/5 at 19:20:43
ASCII
DATASET UNSTRUCTURED_GRID

POINTS 4 double
-1 -1 0
1 -1 0
-1 1 0
1 1 0

CELLS 1 5
4	0	1	3	2

CELL_TYPES 1
 9
POINT_DATA 4
SCALARS x_displacement double 1
LOOKUP_TABLE default
0 0.02 0 0.02 
SCALARS y_displacement double 1
LOOKUP_TABLE default
0 -2.1684e-18 -0.00666667 -0.00666667 
